<?xml version="1.0"?>
<VTKFile type="UnstructuredGrid" version="2.2">
  <UnstructuredGrid>
    <Piece NumberOfPoints="176" NumberOfCells="90">
      <Points>
        <DataArray type="Float64" NumberOfComponents="3" format="ascii">-8.598888854719811e-18 -4.80740671595891e-18 -2.957035008250316e-18 0.1 -4.80740671595891e-18 -2.957035008250316e-18 -8.598888854719811e-18 0.06666666666666667 -2.957035008250316e-18 0.1 0.06666666666666667 -2.957035008250316e-18 -8.598888854719811e-18 -4.80740671595891e-18 0.06666666666666668 0.1 -4.80740671595891e-18 0.06666666666666668 -8.598888854719811e-18 0.06666666666666667 0.06666666666666668 0.1 0.06666666666666667 0.06666666666666668 0.2 -4.80740671595891e-18 -2.957035008250316e-18 0.2 0.06666666666666667 -2.957035008250316e-18 0.2 -4.80740671595891e-18 0.06666666666666668 0.2 0.06666666666666667 0.06666666666666668 -8.598888854719811e-18 0.1333333333333334 -2.957035008250316e-18 0.1 0.1333333333333334 -2.957035008250316e-18 -8.598888854719811e-18 0.1333333333333334 0.06666666666666668 0.1 0.1333333333333334 0.06666666666666668 -8.598888854719811e-18 -4.80740671595891e-18 0.1333333333333334 0.1 -4.80740671595891e-18 0.1333333333333334 -8.598888854719811e-18 0.06666666666666667 0.1333333333333334 0.1 0.06666666666666667 0.1333333333333334 0.3000000000000001 -4.80740671595891e-18 -2.957035008250316e-18 0.3000000000000001 0.06666666666666667 -2.957035008250316e-18 0.3000000000000001 -4.80740671595891e-18 0.06666666666666668 0.3000000000000001 0.06666666666666667 0.06666666666666668 0.2 0.1333333333333334 -2.957035008250316e-18 0.2 0.1333333333333334 0.06666666666666668 0.2 -4.80740671595891e-18 0.1333333333333334 0.2 0.06666666666666667 0.1333333333333334 7.211110073938366e-18 0.2 2.957035008250316e-18 0.09999999999999998 0.2 2.957035008250316e-18 7.211110073938366e-18 0.2 0.06666666666666667 0.09999999999999998 0.2 0.06666666666666667 -8.598888854719811e-18 0.1333333333333334 0.1333333333333334 0.1 0.1333333333333334 0.1333333333333334 4.435552512375473e-18 -7.437084071668732e-19 0.2 0.1 -7.437084071668732e-19 0.2 4.435552512375473e-18 0.06666666666666665 0.2 0.1 0.06666666666666665 0.2 0.4 -4.80740671595891e-18 -2.957035008250316e-18 0.4 0.06666666666666667 -2.957035008250316e-18 0.4 -4.80740671595891e-18 0.06666666666666668 0.4 0.06666666666666667 0.06666666666666668 0.3000000000000001 0.1333333333333334 -2.957035008250316e-18 0.3000000000000001 0.1333333333333334 0.06666666666666668 0.3000000000000001 -4.80740671595891e-18 0.1333333333333334 0.3000000000000001 0.06666666666666667 0.1333333333333334 0.2 0.2 2.957035008250316e-18 0.2 0.2 0.06666666666666667 0.2 0.1333333333333334 0.1333333333333334 0.2 -7.437084071668732e-19 0.2 0.2 0.06666666666666665 0.2 7.211110073938366e-18 0.2 0.1333333333333333 0.09999999999999998 0.2 0.1333333333333333 4.435552512375473e-18 0.1333333333333333 0.2 0.1 0.1333333333333333 0.2 0.5000000000000001 -4.80740671595891e-18 -2.957035008250316e-18 0.5000000000000001 0.06666666666666667 -2.957035008250316e-18 0.5000000000000001 -4.80740671595891e-18 0.06666666666666668 0.5000000000000001 0.06666666666666667 0.06666666666666668 0.4 0.1333333333333334 -2.957035008250316e-18 0.4 0.1333333333333334 0.06666666666666668 0.4 -4.80740671595891e-18 0.1333333333333334 0.4 0.06666666666666667 0.1333333333333334 0.3 0.2 2.957035008250316e-18 0.3 0.2 0.06666666666666667 0.3000000000000001 0.1333333333333334 0.1333333333333334 0.3 -7.437084071668732e-19 0.2 0.3 0.06666666666666665 0.2 0.2 0.2 0.1333333333333333 0.2 0.1333333333333333 0.2 -2.108889788175282e-17 0.2 0.2 0.09999999999999996 0.2 0.2 0.6000000000000002 -4.80740671595891e-18 -2.957035008250316e-18 0.6000000000000002 0.06666666666666667 -2.957035008250316e-18 0.6000000000000002 -4.80740671595891e-18 0.06666666666666668 0.6000000000000002 0.06666666666666667 0.06666666666666668 0.5000000000000001 0.1333333333333334 -2.957035008250316e-18 0.5000000000000001 0.1333333333333334 0.06666666666666668 0.5000000000000001 -4.80740671595891e-18 0.1333333333333334 0.5000000000000001 0.06666666666666667 0.1333333333333334 0.4 0.2 2.957035008250316e-18 0.4 0.2 0.06666666666666667 0.4 0.1333333333333334 0.1333333333333334 0.4 -7.437084071668732e-19 0.2 0.4 0.06666666666666665 0.2 0.3 0.2 0.1333333333333333 0.3 0.1333333333333333 0.2 0.2 0.2 0.2 0.7000000000000002 -4.80740671595891e-18 -2.957035008250316e-18 0.7000000000000002 0.06666666666666667 -2.957035008250316e-18 0.7000000000000002 -4.80740671595891e-18 0.06666666666666668 0.7000000000000002 0.06666666666666667 0.06666666666666668 0.6000000000000002 0.1333333333333334 -2.957035008250316e-18 0.6000000000000002 0.1333333333333334 0.06666666666666668 0.6000000000000002 -4.80740671595891e-18 0.1333333333333334 0.6000000000000002 0.06666666666666667 0.1333333333333334 0.4999999999999999 0.2 2.957035008250316e-18 0.4999999999999999 0.2 0.06666666666666667 0.5000000000000001 0.1333333333333334 0.1333333333333334 0.5000000000000001 -7.437084071668732e-19 0.2 0.5000000000000001 0.06666666666666665 0.2 0.4 0.2 0.1333333333333333 0.4 0.1333333333333333 0.2 0.3 0.2 0.2 0.8000000000000002 -4.80740671595891e-18 -2.957035008250316e-18 0.8000000000000002 0.06666666666666667 -2.957035008250316e-18 0.8000000000000002 -4.80740671595891e-18 0.06666666666666668 0.8000000000000002 0.06666666666666667 0.06666666666666668 0.7000000000000002 0.1333333333333334 -2.957035008250316e-18 0.7000000000000002 0.1333333333333334 0.06666666666666668 0.7000000000000002 -4.80740671595891e-18 0.1333333333333334 0.7000000000000002 0.06666666666666667 0.1333333333333334 0.6 0.2 2.957035008250316e-18 0.6 0.2 0.06666666666666667 0.6000000000000002 0.1333333333333334 0.1333333333333334 0.6000000000000002 -7.437084071668732e-19 0.2 0.6000000000000002 0.06666666666666665 0.2 0.4999999999999999 0.2 0.1333333333333333 0.5000000000000001 0.1333333333333333 0.2 0.3999999999999999 0.2 0.2 0.9 -4.80740671595891e-18 -2.957035008250316e-18 0.9 0.06666666666666667 -2.957035008250316e-18 0.9 -4.80740671595891e-18 0.06666666666666668 0.9 0.06666666666666667 0.06666666666666668 0.8000000000000002 0.1333333333333334 -2.957035008250316e-18 0.8000000000000002 0.1333333333333334 0.06666666666666668 0.8000000000000002 -4.80740671595891e-18 0.1333333333333334 0.8000000000000002 0.06666666666666667 0.1333333333333334 0.7000000000000001 0.2 2.957035008250316e-18 0.7000000000000001 0.2 0.06666666666666667 0.7000000000000002 0.1333333333333334 0.1333333333333334 0.7000000000000001 -7.437084071668732e-19 0.2 0.7000000000000001 0.06666666666666665 0.2 0.6 0.2 0.1333333333333333 0.6000000000000002 0.1333333333333333 0.2 0.4999999999999999 0.2 0.2 1 2.957035008250316e-18 2.957035008250316e-18 1 0.06666666666666665 2.957035008250316e-18 1 2.957035008250316e-18 0.06666666666666665 1 0.06666666666666665 0.06666666666666665 0.9 0.1333333333333334 -2.957035008250316e-18 0.9 0.1333333333333334 0.06666666666666668 0.9 -4.80740671595891e-18 0.1333333333333334 0.9 0.06666666666666667 0.1333333333333334 0.7999999999999999 0.2 2.957035008250316e-18 0.7999999999999999 0.2 0.06666666666666667 0.8000000000000002 0.1333333333333334 0.1333333333333334 0.7999999999999999 -7.437084071668732e-19 0.2 0.7999999999999999 0.06666666666666665 0.2 0.7000000000000001 0.2 0.1333333333333333 0.7000000000000001 0.1333333333333333 0.2 0.6 0.2 0.2 1 0.1333333333333333 2.957035008250316e-18 1 0.1333333333333333 0.06666666666666665 1 2.957035008250316e-18 0.1333333333333333 1 0.06666666666666665 0.1333333333333333 0.8999999999999999 0.2 2.957035008250316e-18 0.8999999999999999 0.2 0.06666666666666667 0.9 0.1333333333333334 0.1333333333333334 0.9 -7.437084071668732e-19 0.2 0.9 0.06666666666666665 0.2 0.7999999999999999 0.2 0.1333333333333333 0.7999999999999999 0.1333333333333333 0.2 0.7 0.2 0.2 1 0.2 -1.590963696221048e-17 1 0.2 0.06666666666666664 1 0.1333333333333333 0.1333333333333333 0.9999999999999999 -1.405926525450188e-17 0.2 0.9999999999999999 0.06666666666666664 0.2 0.8999999999999999 0.2 0.1333333333333333 0.9 0.1333333333333333 0.2 0.7999999999999998 0.2 0.2 1 0.2 0.1333333333333333 0.9999999999999999 0.1333333333333333 0.2 0.8999999999999998 0.2 0.2 1 0.2000000000000001 0.2000000000000001 </DataArray>
      </Points>
      <Cells>
        <DataArray type="Int32" Name="connectivity" format="ascii">0 1 3 2 4 5 7 6 1 8 9 3 5 10 11 7 2 3 13 12 6 7 15 14 4 5 7 6 16 17 19 18 8 20 21 9 10 22 23 11 3 9 24 13 7 11 25 15 5 10 11 7 17 26 27 19 12 13 29 28 14 15 31 30 6 7 15 14 18 19 33 32 16 17 19 18 34 35 37 36 20 38 39 21 22 40 41 23 9 21 42 24 11 23 43 25 10 22 23 11 26 44 45 27 13 24 46 29 15 25 47 31 7 11 25 15 19 27 48 33 17 26 27 19 35 49 50 37 14 15 31 30 32 33 52 51 18 19 33 32 36 37 54 53 38 55 56 39 40 57 58 41 21 39 59 42 23 41 60 43 22 40 41 23 44 61 62 45 24 42 63 46 25 43 64 47 11 23 43 25 27 45 65 48 26 44 45 27 49 66 67 50 15 25 47 31 33 48 68 52 19 27 48 33 37 50 69 54 32 33 52 51 53 54 71 70 55 72 73 56 57 74 75 58 39 56 76 59 41 58 77 60 40 57 58 41 61 78 79 62 42 59 80 63 43 60 81 64 23 41 60 43 45 62 82 65 44 61 62 45 66 83 84 67 25 43 64 47 48 65 85 68 27 45 65 48 50 67 86 69 33 48 68 52 54 69 87 71 72 88 89 73 74 90 91 75 56 73 92 76 58 75 93 77 57 74 75 58 78 94 95 79 59 76 96 80 60 77 97 81 41 58 77 60 62 79 98 82 61 78 79 62 83 99 100 84 43 60 81 64 65 82 101 85 45 62 82 65 67 84 102 86 48 65 85 68 69 86 103 87 88 104 105 89 90 106 107 91 73 89 108 92 75 91 109 93 74 90 91 75 94 110 111 95 76 92 112 96 77 93 113 97 58 75 93 77 79 95 114 98 78 94 95 79 99 115 116 100 60 77 97 81 82 98 117 101 62 79 98 82 84 100 118 102 65 82 101 85 86 102 119 103 104 120 121 105 106 122 123 107 89 105 124 108 91 107 125 109 90 106 107 91 110 126 127 111 92 108 128 112 93 109 129 113 75 91 109 93 95 111 130 114 94 110 111 95 115 131 132 116 77 93 113 97 98 114 133 117 79 95 114 98 100 116 134 118 82 98 117 101 102 118 135 119 120 136 137 121 122 138 139 123 105 121 140 124 107 123 141 125 106 122 123 107 126 142 143 127 108 124 144 128 109 125 145 129 91 107 125 109 111 127 146 130 110 126 127 111 131 147 148 132 93 109 129 113 114 130 149 133 95 111 130 114 116 132 150 134 98 114 133 117 118 134 151 135 121 137 152 140 123 139 153 141 122 138 139 123 142 154 155 143 124 140 156 144 125 141 157 145 107 123 141 125 127 143 158 146 126 142 143 127 147 159 160 148 109 125 145 129 130 146 161 149 111 127 146 130 132 148 162 150 114 130 149 133 134 150 163 151 140 152 164 156 141 153 165 157 123 139 153 141 143 155 166 158 142 154 155 143 159 167 168 160 125 141 157 145 146 158 169 161 127 143 158 146 148 160 170 162 130 146 161 149 150 162 171 163 141 153 165 157 158 166 172 169 143 155 166 158 160 168 173 170 146 158 169 161 162 170 174 171 158 166 172 169 170 173 175 174 </DataArray>
        <DataArray type="Int32" Name="offsets" format="ascii">8 16 24 32 40 48 56 64 72 80 88 96 104 112 120 128 136 144 152 160 168 176 184 192 200 208 216 224 232 240 248 256 264 272 280 288 296 304 312 320 328 336 344 352 360 368 376 384 392 400 408 416 424 432 440 448 456 464 472 480 488 496 504 512 520 528 536 544 552 560 568 576 584 592 600 608 616 624 632 640 648 656 664 672 680 688 696 704 712 720 </DataArray>
        <DataArray type="Int8" Name="types" format="ascii">72 72 72 72 72 72 72 72 72 72 72 72 72 72 72 72 72 72 72 72 72 72 72 72 72 72 72 72 72 72 72 72 72 72 72 72 72 72 72 72 72 72 72 72 72 72 72 72 72 72 72 72 72 72 72 72 72 72 72 72 72 72 72 72 72 72 72 72 72 72 72 72 72 72 72 72 72 72 72 72 72 72 72 72 72 72 72 72 72 72 </DataArray>
      </Cells>
      <CellData>
        <DataArray type="UInt8" Name="vtkGhostType" format="ascii" RangeMin="0" RangeMax="1">0 0 0 0 0 0 0 0 0 0 0 0 0 0 0 0 0 0 0 0 0 0 0 0 0 0 0 0 0 0 0 0 0 0 0 0 0 0 0 0 0 0 0 0 0 0 0 0 0 0 0 0 0 0 0 0 0 0 0 0 0 0 0 0 0 0 0 0 0 0 0 0 0 0 0 0 0 0 0 0 0 0 0 0 0 0 0 0 0 0 </DataArray>
        <DataArray type="Int64" IdType="1" Name="vtkOriginalCellIds" format="ascii" RangeMin="0" RangeMax="89">0 1 2 3 4 5 6 7 8 9 10 11 12 13 14 15 16 17 18 19 20 21 22 23 24 25 26 27 28 29 30 31 32 33 34 35 36 37 38 39 40 41 42 43 44 45 46 47 48 49 50 51 52 53 54 55 56 57 58 59 60 61 62 63 64 65 66 67 68 69 70 71 72 73 74 75 76 77 78 79 80 81 82 83 84 85 86 87 88 89 </DataArray>
      </CellData>
      <PointData Vectors="Displacement Vector">
        <DataArray type="Int64" IdType="1" Name="vtkOriginalPointIds" format="ascii" RangeMin="0" RangeMax="175">0 1 2 3 4 5 6 7 8 9 10 11 12 13 14 15 16 17 18 19 20 21 22 23 24 25 26 27 28 29 30 31 32 33 34 35 36 37 38 39 40 41 42 43 44 45 46 47 48 49 50 51 52 53 54 55 56 57 58 59 60 61 62 63 64 65 66 67 68 69 70 71 72 73 74 75 76 77 78 79 80 81 82 83 84 85 86 87 88 89 90 91 92 93 94 95 96 97 98 99 100 101 102 103 104 105 106 107 108 109 110 111 112 113 114 115 116 117 118 119 120 121 122 123 124 125 126 127 128 129 130 131 132 133 134 135 136 137 138 139 140 141 142 143 144 145 146 147 148 149 150 151 152 153 154 155 156 157 158 159 160 161 162 163 164 165 166 167 168 169 170 171 172 173 174 175 </DataArray>
        <DataArray type="UInt8" Name="vtkGhostType" format="ascii" RangeMin="0" RangeMax="0">0 0 0 0 0 0 0 0 0 0 0 0 0 0 0 0 0 0 0 0 0 0 0 0 0 0 0 0 0 0 0 0 0 0 0 0 0 0 0 0 0 0 0 0 0 0 0 0 0 0 0 0 0 0 0 0 0 0 0 0 0 0 0 0 0 0 0 0 0 0 0 0 0 0 0 0 0 0 0 0 0 0 0 0 0 0 0 0 0 0 0 0 0 0 0 0 0 0 0 0 0 0 0 0 0 0 0 0 0 0 0 0 0 0 0 0 0 0 0 0 0 0 0 0 0 0 0 0 0 0 0 0 0 0 0 0 0 0 0 0 0 0 0 0 0 0 0 0 0 0 0 0 0 0 0 0 0 0 0 0 0 0 0 0 0 0 0 0 0 0 0 0 0 0 0 0 </DataArray>
        <DataArray type="Float64" Name="Displacement Vector" format="ascii" NumberOfComponents="3">0 0 0 -0.007214242313379981 -0.001993581252087903 -0.005244448797645821 0 0 0 -0.007035880397277664 -0.0005969194862693429 -0.006037096288147415 0 0 0 -0.002187223935663973 -0.0006512147153120213 -0.00421379586185354 0 0 0 -0.002072625564036685 -0.0002013963558385154 -0.004965692891053836 -0.01316915536943523 -0.001533360357906781 -0.0165454932257941 -0.01325659482962545 -0.0005392653544526242 -0.01724753808209831 -0.004238778244405733 -0.0005211250999582203 -0.01592126832628822 -0.00429201059749661 -0.000182892783656074 -0.01660460520604475 0 0 0 -0.007035880397276694 0.0005969194862670313 -0.006037096288147325 0 0 0 -0.002072625564035706 0.0002013963558362812 -0.004965692891053965 0 0 0 0.002187223935660645 0.000651214715309461 -0.004213795861853244 0 0 0 0.002072625564035621 0.0002013963558364876 -0.004965692891053734 -0.01793764594651346 -0.001175789537062346 -0.03340025822438748 -0.01802900211676943 -0.0003859976662880368 -0.03392039271247507 -0.005827063223191677 -0.0003862316923753552 -0.03287889205035674 -0.005882603639227523 -0.0001275480046644292 -0.03340492298243674 -0.01325659482962348 0.0005392653544443264 -0.01724753808209846 -0.004292010597494523 0.0001828927836482983 -0.01660460520604506 0.004238778244399175 0.0005211250999505281 -0.01592126832628793 0.004292010597494345 0.0001828927836487338 -0.01660460520604464 0 0 0 -0.007214242313376648 0.001993581252085116 -0.005244448797645513 0 0 0 -0.002187223935660642 0.0006512147153092723 -0.004213795861853904 0 0 0 0.002072625564036604 -0.0002013963558382907 -0.004965692891054042 0 0 0 0.007214242313376558 0.001993581252085733 -0.005244448797644843 0 0 0 0.007035880397276538 0.0005969194862676811 -0.006037096288147075 -0.02153567250150388 -0.0008578985188246725 -0.05422917426544439 -0.02160520444563177 -0.0002871414018113481 -0.05461275611906893 -0.007052721666769794 -0.0002861680194703112 -0.05384922953809998 -0.007093995236921218 -9.5387297811476e-05 -0.05423449286479634 -0.0180290021167666 0.0003859976662708864 -0.03392039271247546 -0.005882603639224547 0.0001275480046483164 -0.03340492298243736 0.005827063223182376 0.0003862316923595825 -0.03287889205035648 0.005882603639224283 0.0001275480046489734 -0.03340492298243669 -0.01316915536942888 0.001533360357898143 -0.0165454932257946 -0.004238778244399269 0.0005211250999501138 -0.01592126832628925 0.004292010597496428 -0.0001828927836556152 -0.01660460520604518 0.0131691553694287 0.001533360357899454 -0.01654549322579325 0.01325659482962322 0.000539265354445645 -0.01724753808209802 0 0 0 0.002187223935663803 -0.0006512147153117726 -0.00421379586185419 0 0 0 0.007035880397277668 -0.0005969194862686753 -0.006037096288147613 -0.02411312938486605 -0.0005999475129800832 -0.07797751091792256 -0.02417145683691274 -0.0001999463740793303 -0.07824503467052232 -0.007932317303967495 -0.0001999046016283495 -0.07771142961409329 -0.007967370863859466 -6.650162186087872e-05 -0.07798096605723452 -0.02160520444562817 0.0002871414017830762 -0.05461275611906957 -0.007093995236917515 9.538729778468072e-05 -0.05423449286479707 0.007052721666758177 0.0002861680194441204 -0.05384922953809983 0.007093995236917138 9.538729778553779e-05 -0.0542344928647962 -0.01793764594650449 0.001175789537044902 -0.03340025822438883 -0.005827063223182575 0.000386231692358949 -0.03287889205035849 0.005882603639227246 -0.0001275480046637527 -0.03340492298243741 0.01793764594650422 0.001175789537046887 -0.03340025822438679 0.01802900211676622 0.0003859976662728817 -0.0339203927124748 0.004238778244405484 -0.0005211250999577485 -0.01592126832628952 0.01325659482962537 -0.0005392653544512893 -0.01724753808209872 0 0 0 0.007214242313379897 -0.001993581252087233 -0.005244448797646442 -0.02584659890668616 -0.0003858732678549352 -0.1037134171835157 -0.02589340546766965 -0.0001290498141916332 -0.1038859266307035 -0.008531253307061558 -0.0001294958596544283 -0.1035406116121518 -0.008559291665531214 -4.290343040509175e-05 -0.1037154973494702 -0.02417145683690849 0.0001999463740379833 -0.07824503467052342 -0.007967370863855166 6.650162182151006e-05 -0.07798096605723581 0.007932317303954021 0.0001999046015896463 -0.07771142961409316 0.007967370863854704 6.650162182244227e-05 -0.07798096605723465 -0.02153567250149275 0.0008578985187961285 -0.05422917426544648 -0.0070527216667585 0.0002861680194432765 -0.0538492295381024 0.007093995236920854 -9.538729781062105e-05 -0.05423449286479713 0.02153567250149235 0.0008578985187986636 -0.05422917426544385 0.02160520444562774 0.0002871414017856173 -0.05461275611906869 0.005827063223191334 -0.0003862316923746741 -0.03287889205035869 0.01802900211676924 -0.000385997666286045 -0.03392039271247568 0.01316915536943506 -0.001533360357905428 -0.01654549322579538 -0.02690454090381728 -0.000219843310397874 -0.1306771027687259 -0.0269396433804605 -7.368387014032009e-05 -0.1307756405829612 -0.008904947965528525 -7.461367173397091e-05 -0.1305769033930402 -0.008925979167974014 -2.453578590653012e-05 -0.1306780371516156 -0.02589340546766493 0.0001290498141359137 -0.1038859266307046 -0.008559291665526471 4.290343035153145e-05 -0.1037154973494712 0.008531253307046585 0.000129495859601813 -0.1035406116121516 0.008559291665525852 4.290343035264639e-05 -0.1037154973494701 -0.02411312938485307 0.0005999475129385841 -0.0779775109179254 -0.007932317303954464 0.0001999046015887625 -0.0777114296140964 0.007967370863858984 -6.650162185982118e-05 -0.0779809660572358 0.02411312938485256 0.0005999475129416599 -0.07797751091792222 0.02417145683690799 0.0001999463740410948 -0.07824503467052232 0.007052721666769364 -0.0002861680194694334 -0.05384922953810257 0.02160520444563149 -0.0002871414018087653 -0.05461275611906973 0.01793764594651323 -0.001175789537060339 -0.03340025822438943 -0.0274560079578704 -0.0001011288418638626 -0.1582774982390814 -0.02747908922030134 -3.425123571239758e-05 -0.1583232565008893 -0.009109986833200178 -3.557324944505091e-05 -0.1582287963152164 -0.009123857208857201 -1.143389657800827e-05 -0.1582774391376645 -0.02693964338045543 7.368387006917577e-05 -0.1307756405829624 -0.008925979167968954 2.453578583772637e-05 -0.1306780371516168 0.008904947965512371 7.461367166620432e-05 -0.1305769033930403 0.008925979167968178 2.453578583892209e-05 -0.1306780371516156 -0.02584659890667178 0.0003858732677990776 -0.1037134171835188 -0.008531253307047166 0.0001294958596007222 -0.1035406116121552 0.00855929166553058 -4.290343040392015e-05 -0.1037154973494713 0.02584659890667124 0.0003858732678024644 -0.1037134171835153 0.02589340546766431 0.000129049814139349 -0.1038859266307033 0.007932317303966967 -0.0001999046016273015 -0.07771142961409634 0.0241714568369123 -0.0001999463740762979 -0.07824503467052353 0.02153567250150355 -0.000857898518822086 -0.05422917426544694 -0.02766864682737098 -3.164087188925069e-05 -0.1860905527039042 -0.02768095124265706 -1.121447668138433e-05 -0.1861051775334549 -0.009201945949225264 -1.21199701676508e-05 -0.1860751372883919 -0.009209232121830559 -3.794750001605973e-06 -0.1860918204102589 -0.02747908922029604 3.425123562497843e-05 -0.1583232565008904 -0.009123857208851881 1.143389649289921e-05 -0.1582774391376658 0.009109986833183224 3.557324936113679e-05 -0.158228796315216 0.009123857208850996 1.143389649410629e-05 -0.1582774391376645 -0.02690454090380189 0.0002198433103265797 -0.1306771027687294 -0.008904947965513095 7.461367166503271e-05 -0.1305769033930438 0.008925979167973261 -2.453578590534126e-05 -0.1306780371516168 0.02690454090380107 0.0002198433103302443 -0.1306771027687256 0.02693964338045462 7.368387007279936e-05 -0.1307756405829612 0.008531253307060867 -0.0001294958596532246 -0.1035406116121552 0.02589340546766909 -0.0001290498141881832 -0.1038859266307046 0.02411312938486556 -0.0005999475129770507 -0.07797751091792558 -0.02771411949653284 -4.760462038059866e-06 -0.213870123097934 -0.02772172802422847 -1.972857511107084e-06 -0.2138752557603426 -0.009228015975144659 -1.577465134352246e-06 -0.2138625254790411 -0.009232151270609598 -3.287368691151805e-07 -0.2138687414245991 -0.0276809512426516 1.121447657761052e-05 -0.186105177533456 -0.009209232121825114 3.794749900118899e-06 -0.1860918204102601 0.009201945949207887 1.211997006736734e-05 -0.186075137288392 0.009209232121824115 3.794749901331738e-06 -0.1860918204102588 -0.02745600795785437 0.0001011288417764257 -0.1582774982390849 -0.009109986833184092 3.5573249359938e-05 -0.15822879631522 0.00912385720885631 -1.143389657672393e-05 -0.1582774391376658 0.02745600795785348 0.0001011288417801564 -0.158277498239081 0.02747908922029513 3.425123562874453e-05 -0.1583232565008891 0.00890494796552777 -7.461367173270043e-05 -0.1305769033930441 0.02693964338045976 -7.368387013659913e-05 -0.1307756405829625 0.02584659890668555 -0.0003858732678514838 -0.103713417183519 -0.027721728024223 1.972857390966111e-06 -0.2138752557603436 -0.009232151270604142 3.287367511892417e-07 -0.2138687414246002 0.009228015975127207 1.577465017600037e-06 -0.213862525479041 0.009232151270603112 3.287367523340753e-07 -0.2138687414245991 -0.02766864682735459 3.164087178545913e-05 -0.1860905527039077 -0.009201945949208916 1.211997006620965e-05 -0.1860751372883954 0.00920923212182953 -3.79475000043283e-06 -0.1860918204102601 0.02766864682735369 3.16408717889298e-05 -0.1860905527039041 0.02768095124265064 1.121447658106393e-05 -0.1861051775334549 0.009109986833199314 -3.557324944379957e-05 -0.15822879631522 0.0274790892203004 -3.425123570876919e-05 -0.1583232565008904 0.02690454090381651 -0.0002198433103940345 -0.1306771027687298 -0.02771411949651622 4.760461917961053e-06 -0.213870123097937 -0.009228015975128208 1.577465016357228e-06 -0.2138625254790441 0.00923215127060859 -3.287368680133534e-07 -0.2138687414246 0.02771411949651527 4.760461921402017e-06 -0.2138701230979337 0.02772172802422194 1.972857394340105e-06 -0.2138752557603424 0.009201945949224254 -1.211997016653115e-05 -0.1860751372883954 0.02768095124265601 -1.121447667787364e-05 -0.1861051775334561 0.02745600795786951 -0.0001011288418602179 -0.158277498239085 0.009228015975143597 -1.577465133286447e-06 -0.2138625254790442 0.02772172802422726 -1.972857507778952e-06 -0.2138752557603434 0.02766864682736991 -3.16408718857874e-05 -0.1860905527039075 0.0277141194965316 -4.760462034766117e-06 -0.213870123097937 </DataArray>
      </PointData>
    </Piece>
  </UnstructuredGrid>
</VTKFile>
