<?xml version="1.0"?>
<VTKFile type="UnstructuredGrid" version="2.2">
  <UnstructuredGrid>
    <Piece NumberOfPoints="176" NumberOfCells="90">
      <Points>
        <DataArray type="Float64" NumberOfComponents="3" format="ascii">0 0 0 0.1 0 0 0 0.06666666666666667 0 0.1 0.06666666666666667 0 0 0 0.06666666666666667 0.1 0 0.06666666666666667 0 0.06666666666666667 0.06666666666666667 0.1 0.06666666666666667 0.06666666666666667 0.2 0 0 0.2 0.06666666666666667 0 0.2 0 0.06666666666666667 0.2 0.06666666666666667 0.06666666666666667 0 0.1333333333333333 0 0.1 0.1333333333333333 0 0 0.1333333333333333 0.06666666666666667 0.1 0.1333333333333333 0.06666666666666667 0 0 0.1333333333333333 0.1 0 0.1333333333333333 0 0.06666666666666667 0.1333333333333333 0.1 0.06666666666666667 0.1333333333333333 0.3 0 0 0.3 0.06666666666666667 0 0.3 0 0.06666666666666667 0.3 0.06666666666666667 0.06666666666666667 0.2 0.1333333333333333 0 0.2 0.1333333333333333 0.06666666666666667 0.2 0 0.1333333333333333 0.2 0.06666666666666667 0.1333333333333333 0 0.2 0 0.1 0.2 0 0 0.2 0.06666666666666667 0.1 0.2 0.06666666666666667 0 0.1333333333333333 0.1333333333333333 0.1 0.1333333333333333 0.1333333333333333 0 0 0.2 0.1 0 0.2 0 0.06666666666666667 0.2 0.1 0.06666666666666667 0.2 0.4 0 0 0.4 0.06666666666666667 0 0.4 0 0.06666666666666667 0.4 0.06666666666666667 0.06666666666666667 0.3 0.1333333333333333 0 0.3 0.1333333333333333 0.06666666666666667 0.3 0 0.1333333333333333 0.3 0.06666666666666667 0.1333333333333333 0.2 0.2 0 0.2 0.2 0.06666666666666667 0.2 0.1333333333333333 0.1333333333333333 0.2 0 0.2 0.2 0.06666666666666667 0.2 0 0.2 0.1333333333333333 0.1 0.2 0.1333333333333333 0 0.1333333333333333 0.2 0.1 0.1333333333333333 0.2 0.5 0 0 0.5 0.06666666666666667 0 0.5 0 0.06666666666666667 0.5 0.06666666666666667 0.06666666666666667 0.4 0.1333333333333333 0 0.4 0.1333333333333333 0.06666666666666667 0.4 0 0.1333333333333333 0.4 0.06666666666666667 0.1333333333333333 0.3 0.2 0 0.3 0.2 0.06666666666666667 0.3 0.1333333333333333 0.1333333333333333 0.3 0 0.2 0.3 0.06666666666666667 0.2 0.2 0.2 0.1333333333333333 0.2 0.1333333333333333 0.2 0 0.2 0.2 0.1 0.2 0.2 0.6000000000000001 0 0 0.6000000000000001 0.06666666666666667 0 0.6000000000000001 0 0.06666666666666667 0.6000000000000001 0.06666666666666667 0.06666666666666667 0.5 0.1333333333333333 0 0.5 0.1333333333333333 0.06666666666666667 0.5 0 0.1333333333333333 0.5 0.06666666666666667 0.1333333333333333 0.4 0.2 0 0.4 0.2 0.06666666666666667 0.4 0.1333333333333333 0.1333333333333333 0.4 0 0.2 0.4 0.06666666666666667 0.2 0.3 0.2 0.1333333333333333 0.3 0.1333333333333333 0.2 0.2 0.2 0.2 0.7000000000000001 0 0 0.7000000000000001 0.06666666666666667 0 0.7000000000000001 0 0.06666666666666667 0.7000000000000001 0.06666666666666667 0.06666666666666667 0.6000000000000001 0.1333333333333333 0 0.6000000000000001 0.1333333333333333 0.06666666666666667 0.6000000000000001 0 0.1333333333333333 0.6000000000000001 0.06666666666666667 0.1333333333333333 0.5 0.2 0 0.5 0.2 0.06666666666666667 0.5 0.1333333333333333 0.1333333333333333 0.5 0 0.2 0.5 0.06666666666666667 0.2 0.4 0.2 0.1333333333333333 0.4 0.1333333333333333 0.2 0.3 0.2 0.2 0.8 0 0 0.8 0.06666666666666667 0 0.8 0 0.06666666666666667 0.8 0.06666666666666667 0.06666666666666667 0.7000000000000001 0.1333333333333333 0 0.7000000000000001 0.1333333333333333 0.06666666666666667 0.7000000000000001 0 0.1333333333333333 0.7000000000000001 0.06666666666666667 0.1333333333333333 0.6000000000000001 0.2 0 0.6000000000000001 0.2 0.06666666666666667 0.6000000000000001 0.1333333333333333 0.1333333333333333 0.6000000000000001 0 0.2 0.6000000000000001 0.06666666666666667 0.2 0.5 0.2 0.1333333333333333 0.5 0.1333333333333333 0.2 0.4 0.2 0.2 0.9 0 0 0.9 0.06666666666666667 0 0.9 0 0.06666666666666667 0.9 0.06666666666666667 0.06666666666666667 0.8 0.1333333333333333 0 0.8 0.1333333333333333 0.06666666666666667 0.8 0 0.1333333333333333 0.8 0.06666666666666667 0.1333333333333333 0.7000000000000001 0.2 0 0.7000000000000001 0.2 0.06666666666666667 0.7000000000000001 0.1333333333333333 0.1333333333333333 0.7000000000000001 0 0.2 0.7000000000000001 0.06666666666666667 0.2 0.6000000000000001 0.2 0.1333333333333333 0.6000000000000001 0.1333333333333333 0.2 0.5 0.2 0.2 1 0 0 1 0.06666666666666667 0 1 0 0.06666666666666667 1 0.06666666666666667 0.06666666666666667 0.9 0.1333333333333333 0 0.9 0.1333333333333333 0.06666666666666667 0.9 0 0.1333333333333333 0.9 0.06666666666666667 0.1333333333333333 0.8 0.2 0 0.8 0.2 0.06666666666666667 0.8 0.1333333333333333 0.1333333333333333 0.8 0 0.2 0.8 0.06666666666666667 0.2 0.7000000000000001 0.2 0.1333333333333333 0.7000000000000001 0.1333333333333333 0.2 0.6000000000000001 0.2 0.2 1 0.1333333333333333 0 1 0.1333333333333333 0.06666666666666667 1 0 0.1333333333333333 1 0.06666666666666667 0.1333333333333333 0.9 0.2 0 0.9 0.2 0.06666666666666667 0.9 0.1333333333333333 0.1333333333333333 0.9 0 0.2 0.9 0.06666666666666667 0.2 0.8 0.2 0.1333333333333333 0.8 0.1333333333333333 0.2 0.7000000000000001 0.2 0.2 1 0.2 0 1 0.2 0.06666666666666667 1 0.1333333333333333 0.1333333333333333 1 0 0.2 1 0.06666666666666667 0.2 0.9 0.2 0.1333333333333333 0.9 0.1333333333333333 0.2 0.8 0.2 0.2 1 0.2 0.1333333333333333 1 0.1333333333333333 0.2 0.9 0.2 0.2 1 0.2 0.2 </DataArray>
      </Points>
      <Cells>
        <DataArray type="Int32" Name="connectivity" format="ascii">0 1 3 2 4 5 7 6 1 8 9 3 5 10 11 7 2 3 13 12 6 7 15 14 4 5 7 6 16 17 19 18 8 20 21 9 10 22 23 11 3 9 24 13 7 11 25 15 5 10 11 7 17 26 27 19 12 13 29 28 14 15 31 30 6 7 15 14 18 19 33 32 16 17 19 18 34 35 37 36 20 38 39 21 22 40 41 23 9 21 42 24 11 23 43 25 10 22 23 11 26 44 45 27 13 24 46 29 15 25 47 31 7 11 25 15 19 27 48 33 17 26 27 19 35 49 50 37 14 15 31 30 32 33 52 51 18 19 33 32 36 37 54 53 38 55 56 39 40 57 58 41 21 39 59 42 23 41 60 43 22 40 41 23 44 61 62 45 24 42 63 46 25 43 64 47 11 23 43 25 27 45 65 48 26 44 45 27 49 66 67 50 15 25 47 31 33 48 68 52 19 27 48 33 37 50 69 54 32 33 52 51 53 54 71 70 55 72 73 56 57 74 75 58 39 56 76 59 41 58 77 60 40 57 58 41 61 78 79 62 42 59 80 63 43 60 81 64 23 41 60 43 45 62 82 65 44 61 62 45 66 83 84 67 25 43 64 47 48 65 85 68 27 45 65 48 50 67 86 69 33 48 68 52 54 69 87 71 72 88 89 73 74 90 91 75 56 73 92 76 58 75 93 77 57 74 75 58 78 94 95 79 59 76 96 80 60 77 97 81 41 58 77 60 62 79 98 82 61 78 79 62 83 99 100 84 43 60 81 64 65 82 101 85 45 62 82 65 67 84 102 86 48 65 85 68 69 86 103 87 88 104 105 89 90 106 107 91 73 89 108 92 75 91 109 93 74 90 91 75 94 110 111 95 76 92 112 96 77 93 113 97 58 75 93 77 79 95 114 98 78 94 95 79 99 115 116 100 60 77 97 81 82 98 117 101 62 79 98 82 84 100 118 102 65 82 101 85 86 102 119 103 104 120 121 105 106 122 123 107 89 105 124 108 91 107 125 109 90 106 107 91 110 126 127 111 92 108 128 112 93 109 129 113 75 91 109 93 95 111 130 114 94 110 111 95 115 131 132 116 77 93 113 97 98 114 133 117 79 95 114 98 100 116 134 118 82 98 117 101 102 118 135 119 120 136 137 121 122 138 139 123 105 121 140 124 107 123 141 125 106 122 123 107 126 142 143 127 108 124 144 128 109 125 145 129 91 107 125 109 111 127 146 130 110 126 127 111 131 147 148 132 93 109 129 113 114 130 149 133 95 111 130 114 116 132 150 134 98 114 133 117 118 134 151 135 121 137 152 140 123 139 153 141 122 138 139 123 142 154 155 143 124 140 156 144 125 141 157 145 107 123 141 125 127 143 158 146 126 142 143 127 147 159 160 148 109 125 145 129 130 146 161 149 111 127 146 130 132 148 162 150 114 130 149 133 134 150 163 151 140 152 164 156 141 153 165 157 123 139 153 141 143 155 166 158 142 154 155 143 159 167 168 160 125 141 157 145 146 158 169 161 127 143 158 146 148 160 170 162 130 146 161 149 150 162 171 163 141 153 165 157 158 166 172 169 143 155 166 158 160 168 173 170 146 158 169 161 162 170 174 171 158 166 172 169 170 173 175 174 </DataArray>
        <DataArray type="Int32" Name="offsets" format="ascii">8 16 24 32 40 48 56 64 72 80 88 96 104 112 120 128 136 144 152 160 168 176 184 192 200 208 216 224 232 240 248 256 264 272 280 288 296 304 312 320 328 336 344 352 360 368 376 384 392 400 408 416 424 432 440 448 456 464 472 480 488 496 504 512 520 528 536 544 552 560 568 576 584 592 600 608 616 624 632 640 648 656 664 672 680 688 696 704 712 720 </DataArray>
        <DataArray type="Int8" Name="types" format="ascii">72 72 72 72 72 72 72 72 72 72 72 72 72 72 72 72 72 72 72 72 72 72 72 72 72 72 72 72 72 72 72 72 72 72 72 72 72 72 72 72 72 72 72 72 72 72 72 72 72 72 72 72 72 72 72 72 72 72 72 72 72 72 72 72 72 72 72 72 72 72 72 72 72 72 72 72 72 72 72 72 72 72 72 72 72 72 72 72 72 72 </DataArray>
      </Cells>
      <CellData>
        <DataArray type="UInt8" Name="vtkGhostType" format="ascii" RangeMin="0" RangeMax="1">0 0 0 0 0 0 0 0 0 0 0 0 0 0 0 0 0 0 0 0 0 0 0 0 0 0 0 0 0 0 0 0 0 0 0 0 0 0 0 0 0 0 0 0 0 0 0 0 0 0 0 0 0 0 0 0 0 0 0 0 0 0 0 0 0 0 0 0 0 0 0 0 0 0 0 0 0 0 0 0 0 0 0 0 0 0 0 0 0 0 </DataArray>
        <DataArray type="Int64" IdType="1" Name="vtkOriginalCellIds" format="ascii" RangeMin="0" RangeMax="89">0 1 2 3 4 5 6 7 8 9 10 11 12 13 14 15 16 17 18 19 20 21 22 23 24 25 26 27 28 29 30 31 32 33 34 35 36 37 38 39 40 41 42 43 44 45 46 47 48 49 50 51 52 53 54 55 56 57 58 59 60 61 62 63 64 65 66 67 68 69 70 71 72 73 74 75 76 77 78 79 80 81 82 83 84 85 86 87 88 89 </DataArray>
      </CellData>
      <PointData>
        <DataArray type="Int64" IdType="1" Name="vtkOriginalPointIds" format="ascii" RangeMin="0" RangeMax="175">0 1 11 12 44 45 55 56 2 13 46 57 22 23 66 67 88 89 99 100 3 14 47 58 24 68 90 101 33 34 77 78 110 111 132 133 143 144 4 15 48 59 25 69 91 102 35 79 112 134 145 121 122 154 155 5 16 49 60 26 70 92 103 36 80 113 135 146 123 156 165 166 6 17 50 61 27 71 93 104 37 81 114 136 147 124 157 167 7 18 51 62 28 72 94 105 38 82 115 137 148 125 158 168 8 19 52 63 29 73 95 106 39 83 116 138 149 126 159 169 9 20 53 64 30 74 96 107 40 84 117 139 150 127 160 170 10 21 54 65 31 75 97 108 41 85 118 140 151 128 161 171 32 76 98 109 42 86 119 141 152 129 162 172 43 87 120 142 153 130 163 173 131 164 174 175 </DataArray>
        <DataArray type="UInt8" Name="vtkGhostType" format="ascii" RangeMin="0" RangeMax="0">0 0 0 0 0 0 0 0 0 0 0 0 0 0 0 0 0 0 0 0 0 0 0 0 0 0 0 0 0 0 0 0 0 0 0 0 0 0 0 0 0 0 0 0 0 0 0 0 0 0 0 0 0 0 0 0 0 0 0 0 0 0 0 0 0 0 0 0 0 0 0 0 0 0 0 0 0 0 0 0 0 0 0 0 0 0 0 0 0 0 0 0 0 0 0 0 0 0 0 0 0 0 0 0 0 0 0 0 0 0 0 0 0 0 0 0 0 0 0 0 0 0 0 0 0 0 0 0 0 0 0 0 0 0 0 0 0 0 0 0 0 0 0 0 0 0 0 0 0 0 0 0 0 0 0 0 0 0 0 0 0 0 0 0 0 0 0 0 0 0 0 0 0 0 0 0 </DataArray>
      </PointData>
    </Piece>
  </UnstructuredGrid>
</VTKFile>
