<?xml version="1.0"?>
<VTKFile type="UnstructuredGrid" version="2.2">
  <UnstructuredGrid>
    <Piece NumberOfPoints="176" NumberOfCells="90">
      <Points>
        <DataArray type="Float64" NumberOfComponents="3" format="ascii">-8.598888854719811e-18 -4.80740671595891e-18 -2.957035008250316e-18 0.1 -4.80740671595891e-18 -2.957035008250316e-18 -8.598888854719811e-18 0.06666666666666667 -2.957035008250316e-18 0.1 0.06666666666666667 -2.957035008250316e-18 -8.598888854719811e-18 -4.80740671595891e-18 0.06666666666666668 0.1 -4.80740671595891e-18 0.06666666666666668 -8.598888854719811e-18 0.06666666666666667 0.06666666666666668 0.1 0.06666666666666667 0.06666666666666668 0.2 -4.80740671595891e-18 -2.957035008250316e-18 0.2 0.06666666666666667 -2.957035008250316e-18 0.2 -4.80740671595891e-18 0.06666666666666668 0.2 0.06666666666666667 0.06666666666666668 -8.598888854719811e-18 0.1333333333333334 -2.957035008250316e-18 0.1 0.1333333333333334 -2.957035008250316e-18 -8.598888854719811e-18 0.1333333333333334 0.06666666666666668 0.1 0.1333333333333334 0.06666666666666668 -8.598888854719811e-18 -4.80740671595891e-18 0.1333333333333334 0.1 -4.80740671595891e-18 0.1333333333333334 -8.598888854719811e-18 0.06666666666666667 0.1333333333333334 0.1 0.06666666666666667 0.1333333333333334 0.3000000000000001 -4.80740671595891e-18 -2.957035008250316e-18 0.3000000000000001 0.06666666666666667 -2.957035008250316e-18 0.3000000000000001 -4.80740671595891e-18 0.06666666666666668 0.3000000000000001 0.06666666666666667 0.06666666666666668 0.2 0.1333333333333334 -2.957035008250316e-18 0.2 0.1333333333333334 0.06666666666666668 0.2 -4.80740671595891e-18 0.1333333333333334 0.2 0.06666666666666667 0.1333333333333334 7.211110073938366e-18 0.2 2.957035008250316e-18 0.09999999999999998 0.2 2.957035008250316e-18 7.211110073938366e-18 0.2 0.06666666666666667 0.09999999999999998 0.2 0.06666666666666667 -8.598888854719811e-18 0.1333333333333334 0.1333333333333334 0.1 0.1333333333333334 0.1333333333333334 4.435552512375473e-18 -7.437084071668732e-19 0.2 0.1 -7.437084071668732e-19 0.2 4.435552512375473e-18 0.06666666666666665 0.2 0.1 0.06666666666666665 0.2 0.4 -4.80740671595891e-18 -2.957035008250316e-18 0.4 0.06666666666666667 -2.957035008250316e-18 0.4 -4.80740671595891e-18 0.06666666666666668 0.4 0.06666666666666667 0.06666666666666668 0.3000000000000001 0.1333333333333334 -2.957035008250316e-18 0.3000000000000001 0.1333333333333334 0.06666666666666668 0.3000000000000001 -4.80740671595891e-18 0.1333333333333334 0.3000000000000001 0.06666666666666667 0.1333333333333334 0.2 0.2 2.957035008250316e-18 0.2 0.2 0.06666666666666667 0.2 0.1333333333333334 0.1333333333333334 0.2 -7.437084071668732e-19 0.2 0.2 0.06666666666666665 0.2 7.211110073938366e-18 0.2 0.1333333333333333 0.09999999999999998 0.2 0.1333333333333333 4.435552512375473e-18 0.1333333333333333 0.2 0.1 0.1333333333333333 0.2 0.5000000000000001 -4.80740671595891e-18 -2.957035008250316e-18 0.5000000000000001 0.06666666666666667 -2.957035008250316e-18 0.5000000000000001 -4.80740671595891e-18 0.06666666666666668 0.5000000000000001 0.06666666666666667 0.06666666666666668 0.4 0.1333333333333334 -2.957035008250316e-18 0.4 0.1333333333333334 0.06666666666666668 0.4 -4.80740671595891e-18 0.1333333333333334 0.4 0.06666666666666667 0.1333333333333334 0.3 0.2 2.957035008250316e-18 0.3 0.2 0.06666666666666667 0.3000000000000001 0.1333333333333334 0.1333333333333334 0.3 -7.437084071668732e-19 0.2 0.3 0.06666666666666665 0.2 0.2 0.2 0.1333333333333333 0.2 0.1333333333333333 0.2 -2.108889788175282e-17 0.2 0.2 0.09999999999999996 0.2 0.2 0.6000000000000002 -4.80740671595891e-18 -2.957035008250316e-18 0.6000000000000002 0.06666666666666667 -2.957035008250316e-18 0.6000000000000002 -4.80740671595891e-18 0.06666666666666668 0.6000000000000002 0.06666666666666667 0.06666666666666668 0.5000000000000001 0.1333333333333334 -2.957035008250316e-18 0.5000000000000001 0.1333333333333334 0.06666666666666668 0.5000000000000001 -4.80740671595891e-18 0.1333333333333334 0.5000000000000001 0.06666666666666667 0.1333333333333334 0.4 0.2 2.957035008250316e-18 0.4 0.2 0.06666666666666667 0.4 0.1333333333333334 0.1333333333333334 0.4 -7.437084071668732e-19 0.2 0.4 0.06666666666666665 0.2 0.3 0.2 0.1333333333333333 0.3 0.1333333333333333 0.2 0.2 0.2 0.2 0.7000000000000002 -4.80740671595891e-18 -2.957035008250316e-18 0.7000000000000002 0.06666666666666667 -2.957035008250316e-18 0.7000000000000002 -4.80740671595891e-18 0.06666666666666668 0.7000000000000002 0.06666666666666667 0.06666666666666668 0.6000000000000002 0.1333333333333334 -2.957035008250316e-18 0.6000000000000002 0.1333333333333334 0.06666666666666668 0.6000000000000002 -4.80740671595891e-18 0.1333333333333334 0.6000000000000002 0.06666666666666667 0.1333333333333334 0.4999999999999999 0.2 2.957035008250316e-18 0.4999999999999999 0.2 0.06666666666666667 0.5000000000000001 0.1333333333333334 0.1333333333333334 0.5000000000000001 -7.437084071668732e-19 0.2 0.5000000000000001 0.06666666666666665 0.2 0.4 0.2 0.1333333333333333 0.4 0.1333333333333333 0.2 0.3 0.2 0.2 0.8000000000000002 -4.80740671595891e-18 -2.957035008250316e-18 0.8000000000000002 0.06666666666666667 -2.957035008250316e-18 0.8000000000000002 -4.80740671595891e-18 0.06666666666666668 0.8000000000000002 0.06666666666666667 0.06666666666666668 0.7000000000000002 0.1333333333333334 -2.957035008250316e-18 0.7000000000000002 0.1333333333333334 0.06666666666666668 0.7000000000000002 -4.80740671595891e-18 0.1333333333333334 0.7000000000000002 0.06666666666666667 0.1333333333333334 0.6 0.2 2.957035008250316e-18 0.6 0.2 0.06666666666666667 0.6000000000000002 0.1333333333333334 0.1333333333333334 0.6000000000000002 -7.437084071668732e-19 0.2 0.6000000000000002 0.06666666666666665 0.2 0.4999999999999999 0.2 0.1333333333333333 0.5000000000000001 0.1333333333333333 0.2 0.3999999999999999 0.2 0.2 0.9 -4.80740671595891e-18 -2.957035008250316e-18 0.9 0.06666666666666667 -2.957035008250316e-18 0.9 -4.80740671595891e-18 0.06666666666666668 0.9 0.06666666666666667 0.06666666666666668 0.8000000000000002 0.1333333333333334 -2.957035008250316e-18 0.8000000000000002 0.1333333333333334 0.06666666666666668 0.8000000000000002 -4.80740671595891e-18 0.1333333333333334 0.8000000000000002 0.06666666666666667 0.1333333333333334 0.7000000000000001 0.2 2.957035008250316e-18 0.7000000000000001 0.2 0.06666666666666667 0.7000000000000002 0.1333333333333334 0.1333333333333334 0.7000000000000001 -7.437084071668732e-19 0.2 0.7000000000000001 0.06666666666666665 0.2 0.6 0.2 0.1333333333333333 0.6000000000000002 0.1333333333333333 0.2 0.4999999999999999 0.2 0.2 1 2.957035008250316e-18 2.957035008250316e-18 1 0.06666666666666665 2.957035008250316e-18 1 2.957035008250316e-18 0.06666666666666665 1 0.06666666666666665 0.06666666666666665 0.9 0.1333333333333334 -2.957035008250316e-18 0.9 0.1333333333333334 0.06666666666666668 0.9 -4.80740671595891e-18 0.1333333333333334 0.9 0.06666666666666667 0.1333333333333334 0.7999999999999999 0.2 2.957035008250316e-18 0.7999999999999999 0.2 0.06666666666666667 0.8000000000000002 0.1333333333333334 0.1333333333333334 0.7999999999999999 -7.437084071668732e-19 0.2 0.7999999999999999 0.06666666666666665 0.2 0.7000000000000001 0.2 0.1333333333333333 0.7000000000000001 0.1333333333333333 0.2 0.6 0.2 0.2 1 0.1333333333333333 2.957035008250316e-18 1 0.1333333333333333 0.06666666666666665 1 2.957035008250316e-18 0.1333333333333333 1 0.06666666666666665 0.1333333333333333 0.8999999999999999 0.2 2.957035008250316e-18 0.8999999999999999 0.2 0.06666666666666667 0.9 0.1333333333333334 0.1333333333333334 0.9 -7.437084071668732e-19 0.2 0.9 0.06666666666666665 0.2 0.7999999999999999 0.2 0.1333333333333333 0.7999999999999999 0.1333333333333333 0.2 0.7 0.2 0.2 1 0.2 -1.590963696221048e-17 1 0.2 0.06666666666666664 1 0.1333333333333333 0.1333333333333333 0.9999999999999999 -1.405926525450188e-17 0.2 0.9999999999999999 0.06666666666666664 0.2 0.8999999999999999 0.2 0.1333333333333333 0.9 0.1333333333333333 0.2 0.7999999999999998 0.2 0.2 1 0.2 0.1333333333333333 0.9999999999999999 0.1333333333333333 0.2 0.8999999999999998 0.2 0.2 1 0.2000000000000001 0.2000000000000001 </DataArray>
      </Points>
      <Cells>
        <DataArray type="Int32" Name="connectivity" format="ascii">0 1 3 2 4 5 7 6 1 8 9 3 5 10 11 7 2 3 13 12 6 7 15 14 4 5 7 6 16 17 19 18 8 20 21 9 10 22 23 11 3 9 24 13 7 11 25 15 5 10 11 7 17 26 27 19 12 13 29 28 14 15 31 30 6 7 15 14 18 19 33 32 16 17 19 18 34 35 37 36 20 38 39 21 22 40 41 23 9 21 42 24 11 23 43 25 10 22 23 11 26 44 45 27 13 24 46 29 15 25 47 31 7 11 25 15 19 27 48 33 17 26 27 19 35 49 50 37 14 15 31 30 32 33 52 51 18 19 33 32 36 37 54 53 38 55 56 39 40 57 58 41 21 39 59 42 23 41 60 43 22 40 41 23 44 61 62 45 24 42 63 46 25 43 64 47 11 23 43 25 27 45 65 48 26 44 45 27 49 66 67 50 15 25 47 31 33 48 68 52 19 27 48 33 37 50 69 54 32 33 52 51 53 54 71 70 55 72 73 56 57 74 75 58 39 56 76 59 41 58 77 60 40 57 58 41 61 78 79 62 42 59 80 63 43 60 81 64 23 41 60 43 45 62 82 65 44 61 62 45 66 83 84 67 25 43 64 47 48 65 85 68 27 45 65 48 50 67 86 69 33 48 68 52 54 69 87 71 72 88 89 73 74 90 91 75 56 73 92 76 58 75 93 77 57 74 75 58 78 94 95 79 59 76 96 80 60 77 97 81 41 58 77 60 62 79 98 82 61 78 79 62 83 99 100 84 43 60 81 64 65 82 101 85 45 62 82 65 67 84 102 86 48 65 85 68 69 86 103 87 88 104 105 89 90 106 107 91 73 89 108 92 75 91 109 93 74 90 91 75 94 110 111 95 76 92 112 96 77 93 113 97 58 75 93 77 79 95 114 98 78 94 95 79 99 115 116 100 60 77 97 81 82 98 117 101 62 79 98 82 84 100 118 102 65 82 101 85 86 102 119 103 104 120 121 105 106 122 123 107 89 105 124 108 91 107 125 109 90 106 107 91 110 126 127 111 92 108 128 112 93 109 129 113 75 91 109 93 95 111 130 114 94 110 111 95 115 131 132 116 77 93 113 97 98 114 133 117 79 95 114 98 100 116 134 118 82 98 117 101 102 118 135 119 120 136 137 121 122 138 139 123 105 121 140 124 107 123 141 125 106 122 123 107 126 142 143 127 108 124 144 128 109 125 145 129 91 107 125 109 111 127 146 130 110 126 127 111 131 147 148 132 93 109 129 113 114 130 149 133 95 111 130 114 116 132 150 134 98 114 133 117 118 134 151 135 121 137 152 140 123 139 153 141 122 138 139 123 142 154 155 143 124 140 156 144 125 141 157 145 107 123 141 125 127 143 158 146 126 142 143 127 147 159 160 148 109 125 145 129 130 146 161 149 111 127 146 130 132 148 162 150 114 130 149 133 134 150 163 151 140 152 164 156 141 153 165 157 123 139 153 141 143 155 166 158 142 154 155 143 159 167 168 160 125 141 157 145 146 158 169 161 127 143 158 146 148 160 170 162 130 146 161 149 150 162 171 163 141 153 165 157 158 166 172 169 143 155 166 158 160 168 173 170 146 158 169 161 162 170 174 171 158 166 172 169 170 173 175 174 </DataArray>
        <DataArray type="Int32" Name="offsets" format="ascii">8 16 24 32 40 48 56 64 72 80 88 96 104 112 120 128 136 144 152 160 168 176 184 192 200 208 216 224 232 240 248 256 264 272 280 288 296 304 312 320 328 336 344 352 360 368 376 384 392 400 408 416 424 432 440 448 456 464 472 480 488 496 504 512 520 528 536 544 552 560 568 576 584 592 600 608 616 624 632 640 648 656 664 672 680 688 696 704 712 720 </DataArray>
        <DataArray type="Int8" Name="types" format="ascii">72 72 72 72 72 72 72 72 72 72 72 72 72 72 72 72 72 72 72 72 72 72 72 72 72 72 72 72 72 72 72 72 72 72 72 72 72 72 72 72 72 72 72 72 72 72 72 72 72 72 72 72 72 72 72 72 72 72 72 72 72 72 72 72 72 72 72 72 72 72 72 72 72 72 72 72 72 72 72 72 72 72 72 72 72 72 72 72 72 72 </DataArray>
      </Cells>
      <CellData>
        <DataArray type="UInt8" Name="vtkGhostType" format="ascii" RangeMin="0" RangeMax="1">0 0 0 0 0 0 0 0 0 0 0 0 0 0 0 0 0 0 0 0 0 0 0 0 0 0 0 0 0 0 0 0 0 0 0 0 0 0 0 0 0 0 0 0 0 0 0 0 0 0 0 0 0 0 0 0 0 0 0 0 0 0 0 0 0 0 0 0 0 0 0 0 0 0 0 0 0 0 0 0 0 0 0 0 0 0 0 0 0 0 </DataArray>
        <DataArray type="Int64" IdType="1" Name="vtkOriginalCellIds" format="ascii" RangeMin="0" RangeMax="89">0 1 2 3 4 5 6 7 8 9 10 11 12 13 14 15 16 17 18 19 20 21 22 23 24 25 26 27 28 29 30 31 32 33 34 35 36 37 38 39 40 41 42 43 44 45 46 47 48 49 50 51 52 53 54 55 56 57 58 59 60 61 62 63 64 65 66 67 68 69 70 71 72 73 74 75 76 77 78 79 80 81 82 83 84 85 86 87 88 89 </DataArray>
      </CellData>
      <PointData Scalars="von Mises stress">
        <DataArray type="Int64" IdType="1" Name="vtkOriginalPointIds" format="ascii" RangeMin="0" RangeMax="175">0 1 2 3 4 5 6 7 8 9 10 11 12 13 14 15 16 17 18 19 20 21 22 23 24 25 26 27 28 29 30 31 32 33 34 35 36 37 38 39 40 41 42 43 44 45 46 47 48 49 50 51 52 53 54 55 56 57 58 59 60 61 62 63 64 65 66 67 68 69 70 71 72 73 74 75 76 77 78 79 80 81 82 83 84 85 86 87 88 89 90 91 92 93 94 95 96 97 98 99 100 101 102 103 104 105 106 107 108 109 110 111 112 113 114 115 116 117 118 119 120 121 122 123 124 125 126 127 128 129 130 131 132 133 134 135 136 137 138 139 140 141 142 143 144 145 146 147 148 149 150 151 152 153 154 155 156 157 158 159 160 161 162 163 164 165 166 167 168 169 170 171 172 173 174 175 </DataArray>
        <DataArray type="UInt8" Name="vtkGhostType" format="ascii" RangeMin="0" RangeMax="0">0 0 0 0 0 0 0 0 0 0 0 0 0 0 0 0 0 0 0 0 0 0 0 0 0 0 0 0 0 0 0 0 0 0 0 0 0 0 0 0 0 0 0 0 0 0 0 0 0 0 0 0 0 0 0 0 0 0 0 0 0 0 0 0 0 0 0 0 0 0 0 0 0 0 0 0 0 0 0 0 0 0 0 0 0 0 0 0 0 0 0 0 0 0 0 0 0 0 0 0 0 0 0 0 0 0 0 0 0 0 0 0 0 0 0 0 0 0 0 0 0 0 0 0 0 0 0 0 0 0 0 0 0 0 0 0 0 0 0 0 0 0 0 0 0 0 0 0 0 0 0 0 0 0 0 0 0 0 0 0 0 0 0 0 0 0 0 0 0 0 0 0 0 0 0 0 </DataArray>
        <DataArray type="Float64" Name="von Mises stress" format="ascii">0.1739589022798385 0.1699366767772596 0.1756197555104603 0.1716358407325541 0.08583487792931518 0.1029323574327987 0.09554009946405564 0.1076037230896742 0.1344519214756612 0.1343479409596925 0.08317912951696714 0.07869398126928744 0.1756197555104414 0.1747133815285341 0.09554009946404772 0.107985145869245 0.08583487792927107 0.09848105243878898 0.09554009946404352 0.1005323469540651 0.1031050714028957 0.1008860341717954 0.06741422456213148 0.06254821639084056 0.1329923891428339 0.07826878017677352 0.07791206292831589 0.07560273856214655 0.1739589022797708 0.1699366767771965 0.08583487792928032 0.102932357432777 0.095540099464058 0.1007522568638045 0.1739589022797653 0.16993667677719 0.175619755510437 0.1716358407325311 0.07493550620393213 0.07349912290874157 0.05157771754434547 0.04779923265978347 0.1011512648744383 0.06263101875474364 0.0613554334593963 0.05844147490106083 0.1344519214756094 0.08317912951695279 0.0753237032853144 0.1344519214756028 0.1343479409596726 0.08583487792932247 0.09848105243884377 0.1756197555104617 0.1747133815285585 0.05164234405302943 0.05031575774051383 0.03818356812123906 0.0349677081157541 0.07343081943936564 0.04781019454101411 0.04585622041524712 0.04359670835303242 0.1031050714028532 0.06741422456212215 0.05849551393904637 0.1031050714028464 0.1008860341717782 0.0779120629283621 0.1329923891428535 0.1739589022798403 0.1699366767772618 0.03268997346552841 0.03156167806536417 0.02666676953290606 0.02407216689645021 0.05030436345918498 0.03498150337095851 0.03278118380172366 0.03086302552537103 0.07493550620389715 0.05157771754434207 0.04360286120392657 0.07493550620389061 0.07349912290872841 0.06135543345943516 0.1011512648744573 0.1344519214756643 0.01814901034654218 0.01721387508376464 0.01703615324290898 0.01509217334098835 0.031529580700507 0.02408770119776192 0.02186033441014472 0.02030135927662382 0.05164234405300211 0.03818356812123343 0.03087451467249088 0.05164234405299951 0.05031575774050207 0.04585622041527785 0.07343081943937924 0.103105071402897 0.007913588556779124 0.007249493015136033 0.009250810821909358 0.007984497335640632 0.01718474261266065 0.01510753760152206 0.01308199237141063 0.01190497650413059 0.03268997346551113 0.02666676953290369 0.02031483849190395 0.03268997346550309 0.03156167806535509 0.03278118380174574 0.05030436345919461 0.07493550620393213 0.002011329212731248 0.001766063273133142 0.003223539869033557 0.002662556178228679 0.007218881440827269 0.00800006773455131 0.006429408430587446 0.005656690832139315 0.01814901034652857 0.01703615324290394 0.0119203027545537 0.01814901034652546 0.01721387508375697 0.02186033441016028 0.03152958070051225 0.05164234405302883 0.001409673946236587 0.001166259194278696 0.001873107527089753 0.00147171063733514 0.001736247090642741 0.002672060005386107 0.001760044378533493 0.001450037825909548 0.007913588556772714 0.009250810821907198 0.005674320828017962 0.007913588556776881 0.007249493015135796 0.01308199237142381 0.0171847426126619 0.03268997346552942 0.001146202371593794 0.001481311536425124 0.001218289621827001 0.0009445606551156119 0.002011329212721792 0.003223539869024333 0.001465704008348244 0.002011329212721243 0.001766063273129253 0.006429408430582158 0.007218881440829902 0.01814901034653597 0.001409673946229251 0.001873107527081667 0.000953310314817417 0.001409673946230499 0.001166259194274251 0.001760044378533456 0.001736247090640148 0.007913588556773696 0.001218289621826243 0.001146202371588788 0.002011329212723941 0.001409673946232507 </DataArray>
      </PointData>
    </Piece>
  </UnstructuredGrid>
</VTKFile>
